# y+ ()       
# Time        	patch         	min           	max           	average       
0             	pipe	3.993911e+01	3.993912e+01	3.993911e+01
0.0005        	pipe	2.324299e+01	2.327721e+01	2.324936e+01
0.001         	pipe	2.081074e+01	7.213530e+01	4.029374e+01
0.0015        	pipe	1.992783e+01	5.821188e+01	3.623548e+01
0.002         	pipe	1.948859e+01	4.611192e+01	3.150522e+01
0.0025        	pipe	1.916498e+01	3.800012e+01	2.829420e+01
0.003         	pipe	2.255954e+01	4.933555e+01	3.321387e+01
0.0035        	pipe	2.781360e+01	1.050536e+02	6.692359e+01
0.004         	pipe	2.713820e+01	1.442024e+02	9.254945e+01
0.0045        	pipe	2.694603e+01	1.360202e+02	9.405171e+01
0.005         	pipe	2.846767e+01	1.274439e+02	9.055250e+01
0.0055        	pipe	3.302701e+01	1.234875e+02	8.793414e+01
0.006         	pipe	3.780550e+01	1.195304e+02	8.479310e+01
0.0065        	pipe	3.952104e+01	1.187416e+02	8.474913e+01
0.007         	pipe	3.865592e+01	1.231244e+02	8.589358e+01
0.0075        	pipe	3.642610e+01	1.258047e+02	8.618995e+01
0.008         	pipe	3.409358e+01	1.220336e+02	8.599590e+01
0.0085        	pipe	3.239521e+01	1.204845e+02	8.461738e+01
0.009         	pipe	3.187445e+01	1.151377e+02	8.163472e+01
0.0095        	pipe	3.108954e+01	1.149291e+02	7.975282e+01
0.01          	pipe	3.000552e+01	1.131627e+02	7.883214e+01
0.0105        	pipe	2.852680e+01	1.125452e+02	7.813427e+01
0.011         	pipe	2.738162e+01	1.113804e+02	7.672514e+01
0.0115        	pipe	2.715132e+01	1.004187e+02	7.361161e+01
0.012         	pipe	2.711252e+01	9.411704e+01	7.243560e+01
0.0125        	pipe	2.709102e+01	9.461013e+01	7.256373e+01
0.013         	pipe	2.630940e+01	9.500584e+01	7.146734e+01
0.0135        	pipe	2.447625e+01	9.380029e+01	6.961360e+01
0.014         	pipe	2.272948e+01	9.129385e+01	6.742870e+01
0.0145        	pipe	1.991803e+01	8.803643e+01	6.489574e+01
0.015         	pipe	1.661452e+01	8.804457e+01	6.714779e+01
0.0155        	pipe	1.584782e+01	9.860567e+01	7.621239e+01
0.016         	pipe	1.535852e+01	1.090549e+02	8.536867e+01
0.0165        	pipe	1.565168e+01	1.180674e+02	9.276351e+01
0.017         	pipe	1.847121e+01	1.265781e+02	9.808258e+01
0.0175        	pipe	2.295658e+01	1.324396e+02	1.011390e+02
0.018         	pipe	5.271945e+01	1.358185e+02	1.035949e+02
0.0185        	pipe	4.485384e+01	1.372430e+02	1.036423e+02
0.019         	pipe	3.072914e+01	1.371427e+02	1.025052e+02
0.0195        	pipe	1.780319e+01	1.365712e+02	1.018086e+02
0.02          	pipe	1.313980e+01	1.342110e+02	1.008805e+02
0.0205        	pipe	1.239960e+01	1.212466e+02	9.317242e+01
0.021         	pipe	1.612950e+01	1.067000e+02	8.303653e+01
0.0215        	pipe	4.196444e+01	9.739334e+01	7.616308e+01
0.022         	pipe	4.565024e+01	9.219169e+01	7.359395e+01
0.0225        	pipe	4.498235e+01	8.815616e+01	7.085709e+01
0.023         	pipe	4.436208e+01	8.460923e+01	6.840293e+01
0.0235        	pipe	4.399092e+01	8.137248e+01	6.621081e+01
0.024         	pipe	4.420702e+01	7.868913e+01	6.453876e+01
0.0245        	pipe	4.440479e+01	7.523105e+01	6.242230e+01
0.025         	pipe	4.375152e+01	7.131639e+01	5.983180e+01
0.0255        	pipe	4.351886e+01	6.729699e+01	5.753246e+01
0.026         	pipe	4.369684e+01	6.287313e+01	5.524202e+01
0.0265        	pipe	4.341744e+01	6.096029e+01	5.301201e+01
0.027         	pipe	4.268693e+01	6.129875e+01	5.115885e+01
0.0275        	pipe	4.211355e+01	6.165452e+01	4.988924e+01
0.028         	pipe	4.188832e+01	6.228773e+01	4.920448e+01
0.0285        	pipe	4.251598e+01	6.381694e+01	4.947677e+01
0.029         	pipe	4.356331e+01	6.528587e+01	5.024389e+01
0.0295        	pipe	4.195423e+01	6.689704e+01	5.097381e+01
0.03          	pipe	4.023203e+01	6.917559e+01	5.229811e+01
0.0305        	pipe	3.861792e+01	7.223469e+01	5.433875e+01
0.031         	pipe	3.706856e+01	7.668324e+01	5.724879e+01
0.0315        	pipe	3.647219e+01	8.592823e+01	6.336355e+01
0.032         	pipe	3.659577e+01	1.001486e+02	7.324869e+01
0.0325        	pipe	3.693945e+01	1.114771e+02	8.226682e+01
0.033         	pipe	3.662758e+01	1.179603e+02	8.731772e+01
0.0335        	pipe	3.543622e+01	1.213511e+02	9.014278e+01
0.034         	pipe	3.434271e+01	1.239286e+02	9.229269e+01
0.0345        	pipe	3.411595e+01	1.253301e+02	9.400479e+01
0.035         	pipe	3.454806e+01	1.249063e+02	9.413999e+01
0.0355        	pipe	3.693743e+01	1.230491e+02	9.255838e+01
0.036         	pipe	4.084895e+01	1.208265e+02	9.087227e+01
0.0365        	pipe	4.501745e+01	1.180473e+02	8.888299e+01
0.037         	pipe	5.016595e+01	1.160100e+02	8.750378e+01
0.0375        	pipe	5.763392e+01	1.145999e+02	8.707881e+01
0.038         	pipe	6.521639e+01	1.093457e+02	8.449130e+01
0.0385        	pipe	6.577240e+01	1.014897e+02	8.090093e+01
0.039         	pipe	6.374828e+01	9.524204e+01	7.764396e+01
0.0395        	pipe	6.117337e+01	9.021773e+01	7.471972e+01
0.04          	pipe	5.896985e+01	8.636568e+01	7.233985e+01
0.0405        	pipe	5.717653e+01	8.311202e+01	7.016510e+01
0.041         	pipe	5.507199e+01	8.031347e+01	6.815281e+01
0.0415        	pipe	5.400170e+01	7.870751e+01	6.686913e+01
0.042         	pipe	5.308929e+01	8.477549e+01	6.677474e+01
0.0425        	pipe	5.174692e+01	8.861375e+01	6.650463e+01
0.043         	pipe	5.052584e+01	9.081676e+01	6.603825e+01
0.0435        	pipe	4.939654e+01	9.230786e+01	6.552984e+01
0.044         	pipe	4.833608e+01	8.907423e+01	6.384175e+01
0.0445        	pipe	4.669057e+01	6.547136e+01	5.707907e+01
0.045         	pipe	4.566410e+01	6.077246e+01	5.447116e+01
0.0455        	pipe	4.435630e+01	5.722069e+01	5.234819e+01
0.046         	pipe	4.472241e+01	1.061854e+02	5.549950e+01
0.0465        	pipe	4.458432e+01	1.075733e+02	5.636012e+01
0.047         	pipe	4.465120e+01	7.941159e+01	5.211357e+01
0.0475        	pipe	4.305881e+01	6.655905e+01	4.952217e+01
0.048         	pipe	4.029670e+01	6.048719e+01	4.825945e+01
0.0485        	pipe	3.758909e+01	5.779819e+01	4.771367e+01
0.049         	pipe	3.437959e+01	5.734060e+01	4.817410e+01
0.0495        	pipe	3.109117e+01	5.996470e+01	5.142546e+01
0.05          	pipe	2.890824e+01	6.840835e+01	5.805702e+01
0.0505        	pipe	2.802112e+01	7.941663e+01	6.549457e+01
0.051         	pipe	2.780218e+01	8.757209e+01	7.040847e+01
0.0515        	pipe	2.752896e+01	9.266894e+01	7.319862e+01
0.052         	pipe	2.714983e+01	9.529127e+01	7.473944e+01
0.0525        	pipe	2.694494e+01	9.633240e+01	7.518784e+01
0.053         	pipe	2.689597e+01	9.598181e+01	7.455649e+01
0.0535        	pipe	2.706385e+01	9.414789e+01	7.267103e+01
0.054         	pipe	2.680243e+01	9.076449e+01	6.958271e+01
0.0545        	pipe	2.726251e+01	8.577199e+01	6.569533e+01
0.055         	pipe	2.975879e+01	7.944325e+01	6.159480e+01
0.0555        	pipe	3.270596e+01	7.206897e+01	5.665837e+01
0.056         	pipe	3.644197e+01	6.444218e+01	5.188015e+01
0.0565        	pipe	3.889014e+01	5.917970e+01	4.917944e+01
0.057         	pipe	3.887739e+01	5.511390e+01	4.724376e+01
0.0575        	pipe	3.802847e+01	5.202025e+01	4.548676e+01
0.058         	pipe	3.691600e+01	5.000830e+01	4.409970e+01
0.0585        	pipe	3.600050e+01	4.817638e+01	4.284827e+01
0.059         	pipe	3.516248e+01	4.660345e+01	4.171559e+01
0.0595        	pipe	3.423429e+01	4.516036e+01	4.062693e+01
0.06          	pipe	3.323498e+01	4.360934e+01	3.943719e+01
0.0605        	pipe	3.242618e+01	4.213591e+01	3.831268e+01
0.061         	pipe	3.171772e+01	4.086393e+01	3.732130e+01
0.0615        	pipe	3.094415e+01	3.974612e+01	3.643991e+01
0.062         	pipe	3.014537e+01	3.883210e+01	3.565380e+01
0.0625        	pipe	2.952664e+01	3.799632e+01	3.498174e+01
0.063         	pipe	2.939587e+01	3.765768e+01	3.437007e+01
0.0635        	pipe	2.980725e+01	3.797270e+01	3.406637e+01
0.064         	pipe	3.055907e+01	3.869762e+01	3.433350e+01
0.0645        	pipe	3.163448e+01	3.985256e+01	3.490468e+01
0.065         	pipe	3.295991e+01	4.126695e+01	3.574891e+01
0.0655        	pipe	3.221336e+01	4.361542e+01	3.719431e+01
0.066         	pipe	3.138175e+01	4.816288e+01	4.034194e+01
0.0665        	pipe	3.073877e+01	5.577079e+01	4.597543e+01
0.067         	pipe	3.047112e+01	6.577839e+01	5.361171e+01
0.0675        	pipe	3.035444e+01	7.556815e+01	6.084587e+01
0.068         	pipe	3.009283e+01	8.315921e+01	6.616034e+01
0.0685        	pipe	2.994508e+01	8.853210e+01	6.974333e+01
0.069         	pipe	2.963917e+01	9.270099e+01	7.241775e+01
0.0695        	pipe	2.929145e+01	9.536357e+01	7.417972e+01
0.07          	pipe	2.897776e+01	9.692863e+01	7.508885e+01
0.0705        	pipe	2.878306e+01	9.701449e+01	7.468823e+01
0.071         	pipe	2.934387e+01	9.556500e+01	7.294531e+01
0.0715        	pipe	3.189059e+01	9.348715e+01	7.072310e+01
0.072         	pipe	3.688609e+01	9.141625e+01	6.908492e+01
0.0725        	pipe	4.381257e+01	8.800103e+01	6.716759e+01
0.073         	pipe	5.061036e+01	8.218506e+01	6.468480e+01
0.0735        	pipe	5.326609e+01	7.579413e+01	6.206689e+01
0.074         	pipe	5.201903e+01	7.019452e+01	5.949776e+01
0.0745        	pipe	5.058188e+01	6.629200e+01	5.744611e+01
0.075         	pipe	4.919282e+01	6.330303e+01	5.574822e+01
0.0755        	pipe	4.773800e+01	6.085630e+01	5.421569e+01
0.076         	pipe	4.620412e+01	5.849306e+01	5.270403e+01
0.0765        	pipe	4.459035e+01	5.630688e+01	5.121911e+01
0.077         	pipe	4.320325e+01	5.468964e+01	4.986625e+01
0.0775        	pipe	4.209668e+01	5.405147e+01	4.854521e+01
0.078         	pipe	4.107409e+01	5.337756e+01	4.727744e+01
0.0785        	pipe	3.976318e+01	5.245312e+01	4.592613e+01
0.079         	pipe	3.836752e+01	5.141375e+01	4.466251e+01
0.0795        	pipe	3.706201e+01	5.036985e+01	4.357132e+01
0.08          	pipe	3.610404e+01	6.842431e+01	4.360629e+01
0.0805        	pipe	3.517363e+01	1.320109e+02	4.831962e+01
0.081         	pipe	3.405785e+01	1.272806e+02	4.796074e+01
0.0815        	pipe	3.385552e+01	1.002894e+02	4.423131e+01
0.082         	pipe	3.395563e+01	7.072674e+01	4.130123e+01
0.0825        	pipe	3.429850e+01	5.728230e+01	3.978682e+01
0.083         	pipe	3.304121e+01	5.039308e+01	3.912887e+01
0.0835        	pipe	3.056250e+01	4.705280e+01	3.934553e+01
0.084         	pipe	2.810182e+01	4.926362e+01	4.155623e+01
0.0845        	pipe	2.618450e+01	5.562940e+01	4.649623e+01
0.085         	pipe	2.501788e+01	6.465343e+01	5.317783e+01
0.0855        	pipe	2.437455e+01	7.338140e+01	5.957793e+01
0.086         	pipe	2.403997e+01	8.030175e+01	6.433354e+01
0.0865        	pipe	2.401706e+01	8.504040e+01	6.736276e+01
0.087         	pipe	2.410776e+01	8.802644e+01	6.938439e+01
0.0875        	pipe	2.437048e+01	8.936810e+01	7.034825e+01
0.088         	pipe	2.507331e+01	8.938273e+01	7.022687e+01
0.0885        	pipe	2.654109e+01	8.745501e+01	6.852565e+01
0.089         	pipe	2.823821e+01	8.261433e+01	6.465507e+01
0.0895        	pipe	2.950338e+01	7.690237e+01	6.039018e+01
0.09          	pipe	3.148013e+01	7.076933e+01	5.609323e+01
0.0905        	pipe	3.435412e+01	6.473012e+01	5.193257e+01
0.091         	pipe	3.647570e+01	5.851746e+01	4.800535e+01
0.0915        	pipe	3.599459e+01	5.368023e+01	4.526638e+01
0.092         	pipe	3.560418e+01	5.024942e+01	4.350518e+01
0.0925        	pipe	3.507418e+01	4.722846e+01	4.190563e+01
0.093         	pipe	3.424569e+01	4.501541e+01	4.058348e+01
0.0935        	pipe	3.344715e+01	4.333395e+01	3.947835e+01
0.094         	pipe	3.262412e+01	4.171052e+01	3.835962e+01
0.0945        	pipe	3.176904e+01	4.075067e+01	3.720941e+01
0.095         	pipe	3.108928e+01	4.021268e+01	3.616009e+01
0.0955        	pipe	3.048191e+01	3.957936e+01	3.515420e+01
0.096         	pipe	2.974032e+01	3.888497e+01	3.420264e+01
0.0965        	pipe	2.883073e+01	3.815338e+01	3.330394e+01
0.097         	pipe	2.784617e+01	3.738670e+01	3.250034e+01
0.0975        	pipe	2.708065e+01	3.669270e+01	3.180194e+01
0.098         	pipe	2.680982e+01	3.629765e+01	3.123492e+01
0.0985        	pipe	2.702769e+01	3.641921e+01	3.095792e+01
0.099         	pipe	2.775515e+01	3.708752e+01	3.130997e+01
0.0995        	pipe	2.884682e+01	3.819666e+01	3.196930e+01
0.1           	pipe	2.878966e+01	4.002390e+01	3.323776e+01
