# y+ ()       
# Time        	patch         	min           	max           	average       
0             	pipe	2.328005e+01	2.328005e+01	2.328005e+01
0.1           	pipe	5.098540e+01	1.461445e+02	1.023338e+02
0.2           	pipe	5.930074e+01	3.925301e+02	1.908147e+02
0.3           	pipe	7.157241e+01	2.875441e+02	1.823639e+02
0.4           	pipe	1.399858e+02	2.826819e+02	1.923467e+02
0.5           	pipe	1.095432e+02	4.139016e+02	2.308556e+02
0.6           	pipe	4.881119e+01	2.371752e+02	1.241847e+02
0.7           	pipe	1.092098e+02	3.871990e+02	2.148894e+02
0.8           	pipe	7.125083e+01	4.431929e+02	1.824332e+02
0.9           	pipe	8.963902e+01	4.201394e+02	2.056938e+02
1             	pipe	4.912306e+01	5.395817e+02	1.937803e+02
1.1           	pipe	7.375651e+01	2.827982e+02	1.761790e+02
1.2           	pipe	5.390394e+01	1.732041e+02	1.367073e+02
1.3           	pipe	9.703074e+01	4.099092e+02	2.263095e+02
1.4           	pipe	7.438663e+01	2.731760e+02	1.276915e+02
1.5           	pipe	7.308800e+01	3.249276e+02	1.784921e+02
1.6           	pipe	1.097442e+02	4.758158e+02	2.235706e+02
1.7           	pipe	9.018990e+01	2.939173e+02	1.746689e+02
1.8           	pipe	7.923504e+01	3.178485e+02	1.890750e+02
1.9           	pipe	8.565305e+01	1.823647e+02	1.332327e+02
2             	pipe	9.181029e+01	2.740410e+02	1.618304e+02
2.1           	pipe	5.961395e+01	3.280098e+02	1.932669e+02
2.2           	pipe	4.604691e+01	1.073503e+02	8.934706e+01
2.3           	pipe	6.392779e+01	1.616188e+02	1.251889e+02
2.4           	pipe	6.550912e+01	2.947851e+02	1.526093e+02
2.5           	pipe	6.387220e+01	2.666839e+02	1.736079e+02
2.6           	pipe	4.897474e+01	2.966924e+02	1.463314e+02
2.7           	pipe	7.299547e+01	3.217007e+02	1.776494e+02
2.8           	pipe	4.503285e+01	2.659230e+02	1.043363e+02
2.9           	pipe	9.344855e+01	2.110742e+02	1.471393e+02
3             	pipe	9.587699e+01	1.920439e+02	1.494588e+02
3.1           	pipe	5.089053e+01	2.402500e+02	1.007272e+02
3.2           	pipe	9.762451e+01	2.860628e+02	1.961689e+02
3.3           	pipe	1.222296e+02	3.140989e+02	1.884583e+02
3.4           	pipe	8.296170e+01	2.913811e+02	1.682472e+02
3.5           	pipe	6.967606e+01	2.245815e+02	1.387035e+02
3.6           	pipe	6.352924e+01	2.435174e+02	1.728195e+02
3.7           	pipe	1.158426e+02	4.396504e+02	2.355303e+02
3.8           	pipe	5.118405e+01	2.685807e+02	1.675254e+02
3.9           	pipe	1.271230e+02	2.375717e+02	1.895059e+02
4             	pipe	6.357136e+01	4.111500e+02	2.035174e+02
4.1           	pipe	9.321136e+01	1.706000e+02	1.309666e+02
4.2           	pipe	5.945436e+01	1.292729e+02	9.440174e+01
4.3           	pipe	1.122004e+02	3.615708e+02	1.931247e+02
4.4           	pipe	9.893737e+01	1.857937e+02	1.425226e+02
4.5           	pipe	6.659467e+01	1.604794e+02	1.182697e+02
4.6           	pipe	6.376763e+01	3.473931e+02	1.599866e+02
4.7           	pipe	4.370702e+01	1.357932e+02	9.165669e+01
4.8           	pipe	1.144137e+02	3.955711e+02	2.476260e+02
4.9           	pipe	9.249187e+01	1.914448e+02	1.383823e+02
5             	pipe	4.959998e+01	2.101292e+02	1.151564e+02
5.1           	pipe	5.633005e+01	8.110642e+02	2.477526e+02
5.2           	pipe	8.348928e+01	1.840698e+02	1.615645e+02
5.3           	pipe	5.894134e+01	3.250066e+02	1.865385e+02
5.4           	pipe	6.420150e+01	1.979284e+02	1.388883e+02
5.5           	pipe	1.139638e+02	3.919299e+02	2.213443e+02
5.6           	pipe	9.634896e+01	2.180743e+02	1.538930e+02
5.7           	pipe	8.512122e+01	3.220226e+02	2.249688e+02
5.8           	pipe	6.556903e+01	4.008881e+02	1.408976e+02
5.9           	pipe	8.502196e+01	2.357173e+02	1.628985e+02
6             	pipe	4.795938e+01	2.507595e+02	1.608469e+02
6.1           	pipe	4.755359e+01	1.487041e+02	9.552184e+01
6.2           	pipe	6.727916e+01	4.915010e+02	2.229702e+02
6.3           	pipe	6.785009e+01	2.736284e+02	1.678335e+02
6.4           	pipe	1.338665e+02	3.943146e+02	2.668503e+02
6.5           	pipe	1.173213e+02	3.829860e+02	2.106114e+02
6.6           	pipe	9.245296e+01	1.997614e+02	1.489587e+02
6.7           	pipe	6.520792e+01	4.972124e+02	2.406807e+02
6.8           	pipe	4.451742e+01	2.961007e+02	1.345136e+02
6.9           	pipe	7.045641e+01	1.987554e+02	1.242428e+02
7             	pipe	5.786489e+01	2.971632e+02	1.688021e+02
7.1           	pipe	9.903435e+01	6.861150e+02	2.544133e+02
7.2           	pipe	7.620415e+01	5.231416e+02	2.309791e+02
7.3           	pipe	8.147365e+01	2.355133e+02	1.373730e+02
7.4           	pipe	8.305811e+01	2.338929e+02	1.694899e+02
7.5           	pipe	5.284506e+01	1.363805e+02	1.143192e+02
7.6           	pipe	9.201041e+01	3.408536e+02	2.078114e+02
7.7           	pipe	4.945722e+01	2.209163e+02	1.530943e+02
7.8           	pipe	9.021738e+01	2.681621e+02	1.793347e+02
7.9           	pipe	1.046593e+02	3.146182e+02	2.215426e+02
8             	pipe	1.180336e+02	3.330376e+02	2.140355e+02
8.1           	pipe	7.602842e+01	1.440700e+02	1.164444e+02
8.2           	pipe	1.204492e+02	3.817098e+02	2.426683e+02
8.3           	pipe	1.207022e+02	3.772677e+02	2.406807e+02
8.4           	pipe	8.565403e+01	3.135424e+02	2.157479e+02
8.5           	pipe	5.450179e+01	4.372066e+02	2.069750e+02
8.6           	pipe	1.255001e+02	4.140275e+02	2.170466e+02
8.7           	pipe	5.257107e+01	3.025260e+02	1.559646e+02
8.8           	pipe	7.468144e+01	2.612587e+02	1.805638e+02
8.9           	pipe	7.770140e+01	5.750166e+02	2.833519e+02
9             	pipe	7.719658e+01	3.194739e+02	1.964003e+02
9.1           	pipe	8.505276e+01	2.829961e+02	1.825742e+02
9.2           	pipe	6.870179e+01	2.648393e+02	1.721681e+02
9.3           	pipe	8.887366e+01	3.118660e+02	2.119693e+02
